LAMMPS (29 Oct 2020)
  using 1 OpenMP thread(s) per MPI task
Created orthogonal box = (0.0000000 0.0000000 0.0000000) to (200.00000 100.00000 100.00000)
  4 by 2 by 2 MPI processor grid
Lattice spacing in x,y,z = 1.0000000 1.0000000 1.0000000
Created 39400 atoms
  create_atoms CPU = 0.004 seconds
39400 atoms in group fluid
Setting atom values ...
  39400 settings made for rho
Setting atom values ...
  39400 settings made for phase
Setting atom values ...
  39400 settings made for temp
Neighbor list info ...
  update every 1 steps, delay 10 steps, check yes
  max neighbors/atom: 5000, page size: 100000
  master list distance cutoff = 3.6
  ghost atom cutoff = 3.6
  binsize = 1.8, bins = 112 56 56
  5 neighbor lists, perpetual/occasional/extra = 5 0 0
  (1) pair rheo, perpetual, half/full from (2)
      attributes: half, newton off
      pair build: halffull/newtoff
      stencil: none
      bin: none
  (2) compute rheo/kernel, perpetual
      attributes: full, newton off
      pair build: full/bin/atomonly
      stencil: full/bin/3d
      bin: standard
  (3) compute rheo/grad, perpetual, copy from (1)
      attributes: half, newton off
      pair build: copy
      stencil: none
      bin: none
  (4) compute rheo/solids, perpetual, copy from (1)
      attributes: half, newton off
      pair build: copy
      stencil: none
      bin: none
  (5) compute rheo/vshift, perpetual, copy from (1)
      attributes: half, newton off
      pair build: copy
      stencil: none
      bin: none
Setting up Verlet run ...
  Unit style    : lj
  Current step  : 0
  Time step     : 0.3
Per MPI rank memory allocation (min/avg/max) = 14.30 | 14.86 | 16.52 Mbytes
Step Time KinEng Press 
       0            0            0            0 
     500          150            0            0 
    1000          300            0            0 
Loop time of 57.7259 on 16 procs for 1000 steps with 39400 atoms

Performance: 449018.163 tau/day, 17.323 timesteps/s
99.4% CPU use with 16 MPI tasks x 1 OpenMP threads

MPI task timing breakdown:
Section |  min time  |  avg time  |  max time  |%varavg| %total
---------------------------------------------------------------
Pair    | 14.722     | 15.742     | 19.589     |  28.4 | 27.27
Neigh   | 0.0090448  | 0.0098725  | 0.011097   |   0.6 |  0.02
Comm    | 0.11678    | 0.12992    | 0.15196    |   3.0 |  0.23
Output  | 9.5452e-05 | 0.0084068  | 0.010525   |   2.7 |  0.01
Modify  | 37.296     | 40.263     | 42.066     |  25.9 | 69.75
Other   |            | 1.573      |            |       |  2.72

Nlocal:        2462.50 ave        2561 max        2364 min
Histogram: 8 0 0 0 0 0 0 0 0 8
Nghost:        1391.31 ave        1576 max        1182 min
Histogram: 2 0 0 0 0 11 0 0 0 3
Neighs:       201930.0 ave      209241 max      194618 min
Histogram: 8 0 0 0 0 0 0 0 0 8
FullNghs:     365575.0 ave      380198 max      350952 min
Histogram: 8 0 0 0 0 0 0 0 0 8

Total # of neighbors = 5849200
Ave neighs/atom = 148.45685
Neighbor list builds = 1
Dangerous builds = 0
System init for write_data ...
Total wall time: 0:00:57
LAMMPS (29 Oct 2020)
  using 1 OpenMP thread(s) per MPI task
Created orthogonal box = (0.0000000 0.0000000 0.0000000) to (200.00000 100.00000 100.00000)
  4 by 2 by 2 MPI processor grid
Lattice spacing in x,y,z = 1.0000000 1.0000000 1.0000000
Created 60000 atoms
  create_atoms CPU = 0.006 seconds
dynamic group fext_group defined
0 atoms in group fluid
60000 atoms in group solid_fixed
0 atoms in group solid_moving
60000 atoms in group solid
Changing box ...
  orthogonal box = (0.0000000 0.0000000 0.0000000) to (205.00000 100.00000 100.00000)
Displacing atoms ...
Setting atom values ...
  60000 settings made for rho
Setting atom values ...
  60000 settings made for phase
Setting atom values ...
  60000 settings made for phase
Setting atom values ...
  0 settings made for phase
Setting atom values ...
  60000 settings made for temp
Reading data file ...
  1 reading atoms ...
Neighbor list info ...
  update every 1 steps, delay 10 steps, check yes
  max neighbors/atom: 5000, page size: 100000
  master list distance cutoff = 3.6
  ghost atom cutoff = 3.6
  binsize = 1.8, bins = 114 56 56
  7 neighbor lists, perpetual/occasional/extra = 7 0 0
  (1) pair rheo, perpetual, half/full from (2)
      attributes: half, newton on
      pair build: halffull/newton
      stencil: none
      bin: none
  (2) compute rheo/kernel, perpetual
      attributes: full, newton on
      pair build: full/bin/atomonly
      stencil: full/bin/3d
      bin: standard
  (3) compute rheo/grad, perpetual, copy from (1)
      attributes: half, newton on
      pair build: copy
      stencil: none
      bin: none
  (4) compute rheo/solids, perpetual, copy from (1)
      attributes: half, newton on
      pair build: copy
      stencil: none
      bin: none
  (5) compute rheo/vshift, perpetual, copy from (1)
      attributes: half, newton on
      pair build: copy
      stencil: none
      bin: none
  (6) fix rheo/surface, perpetual, copy from (1)
      attributes: half, newton on
      pair build: copy
      stencil: none
      bin: none
  (7) fix , perpetual, copy from (1)
      attributes: half, newton on
      pair build: copy
      stencil: none
      bin: none
Setting up Verlet run ...
  Unit style    : lj
  Current step  : 0
  Time step     : 0.1
Per MPI rank memory allocation (min/avg/max) = 12.72 | 22.72 | 52.70 Mbytes
Step Time KinEng Press 
       0            0            0            0 
     500           50      0.04925 1.601626e-08 
slurmstepd: error: *** JOB 1843800 ON solo1 CANCELLED AT 2023-03-31T09:31:28 ***
