LAMMPS (29 Oct 2020)
  using 1 OpenMP thread(s) per MPI task
Created orthogonal box = (0.0000000 0.0000000 0.0000000) to (200.00000 100.00000 100.00000)
  4 by 2 by 2 MPI processor grid
Lattice spacing in x,y,z = 1.0000000 1.0000000 1.0000000
Created 39400 atoms
  create_atoms CPU = 0.004 seconds
39400 atoms in group fluid
Setting atom values ...
  39400 settings made for rho
Setting atom values ...
  39400 settings made for phase
Setting atom values ...
  39400 settings made for temp
Neighbor list info ...
  update every 1 steps, delay 10 steps, check yes
  max neighbors/atom: 5000, page size: 100000
  master list distance cutoff = 3.6
  ghost atom cutoff = 3.6
  binsize = 1.8, bins = 112 56 56
  5 neighbor lists, perpetual/occasional/extra = 5 0 0
  (1) pair rheo, perpetual, half/full from (2)
      attributes: half, newton off
      pair build: halffull/newtoff
      stencil: none
      bin: none
  (2) compute rheo/kernel, perpetual
      attributes: full, newton off
      pair build: full/bin/atomonly
      stencil: full/bin/3d
      bin: standard
  (3) compute rheo/grad, perpetual, copy from (1)
      attributes: half, newton off
      pair build: copy
      stencil: none
      bin: none
  (4) compute rheo/solids, perpetual, copy from (1)
      attributes: half, newton off
      pair build: copy
      stencil: none
      bin: none
  (5) compute rheo/vshift, perpetual, copy from (1)
      attributes: half, newton off
      pair build: copy
      stencil: none
      bin: none
Setting up Verlet run ...
  Unit style    : lj
  Current step  : 0
  Time step     : 0.3
Per MPI rank memory allocation (min/avg/max) = 14.30 | 14.86 | 16.52 Mbytes
Step Time KinEng Press 
       0            0            0            0 
slurmstepd: error: *** JOB 1843799 ON solo2 CANCELLED AT 2023-03-31T09:27:21 ***
