LAMMPS (29 Oct 2020)
  using 1 OpenMP thread(s) per MPI task
Created orthogonal box = (0.0000000 0.0000000 0.0000000) to (200.00000 50.000000 50.000000)
  4 by 2 by 2 MPI processor grid
Lattice spacing in x,y,z = 1.0000000 1.0000000 1.0000000
Created 39400 atoms
  create_atoms CPU = 0.004 seconds
39400 atoms in group fluid
Setting atom values ...
  39400 settings made for rho
Setting atom values ...
  39400 settings made for phase
Setting atom values ...
  39400 settings made for temp
Neighbor list info ...
  update every 1 steps, delay 10 steps, check yes
  max neighbors/atom: 5000, page size: 100000
  master list distance cutoff = 3.6
  ghost atom cutoff = 3.6
  binsize = 1.8, bins = 112 28 28
  5 neighbor lists, perpetual/occasional/extra = 5 0 0
  (1) pair rheo, perpetual, half/full from (2)
      attributes: half, newton off
      pair build: halffull/newtoff
      stencil: none
      bin: none
  (2) compute rheo/kernel, perpetual
      attributes: full, newton off
      pair build: full/bin/atomonly
      stencil: full/bin/3d
      bin: standard
  (3) compute rheo/grad, perpetual, copy from (1)
      attributes: half, newton off
      pair build: copy
      stencil: none
      bin: none
  (4) compute rheo/solids, perpetual, copy from (1)
      attributes: half, newton off
      pair build: copy
      stencil: none
      bin: none
  (5) compute rheo/vshift, perpetual, copy from (1)
      attributes: half, newton off
      pair build: copy
      stencil: none
      bin: none
Setting up Verlet run ...
  Unit style    : lj
  Current step  : 0
  Time step     : 0.3
Per MPI rank memory allocation (min/avg/max) = 14.16 | 14.72 | 16.38 Mbytes
Step Time KinEng Press 
       0            0            0            0 
     500          150            0            0 
    1000          300            0            0 
Loop time of 54.3823 on 16 procs for 1000 steps with 39400 atoms

Performance: 476625.936 tau/day, 18.388 timesteps/s
99.5% CPU use with 16 MPI tasks x 1 OpenMP threads

MPI task timing breakdown:
Section |  min time  |  avg time  |  max time  |%varavg| %total
---------------------------------------------------------------
Pair    | 14.709     | 15.426     | 16.127     |  14.5 | 28.37
Neigh   | 0.0087241  | 0.0095345  | 0.01097    |   0.6 |  0.02
Comm    | 0.11383    | 0.12302    | 0.13154    |   1.6 |  0.23
Output  | 0.00034817 | 0.0022028  | 0.0039148  |   2.7 |  0.00
Modify  | 37.57      | 38.185     | 38.733     |   6.4 | 70.22
Other   |            | 0.6357     |            |       |  1.17

Nlocal:        2462.50 ave        2561 max        2364 min
Histogram: 8 0 0 0 0 0 0 0 0 8
Nghost:        1391.31 ave        1576 max        1182 min
Histogram: 2 0 0 0 0 11 0 0 0 3
Neighs:       201930.0 ave      209241 max      194618 min
Histogram: 8 0 0 0 0 0 0 0 0 8
FullNghs:     365575.0 ave      380198 max      350952 min
Histogram: 8 0 0 0 0 0 0 0 0 8

Total # of neighbors = 5849200
Ave neighs/atom = 148.45685
Neighbor list builds = 1
Dangerous builds = 0
System init for write_data ...
Total wall time: 0:00:54
LAMMPS (29 Oct 2020)
  using 1 OpenMP thread(s) per MPI task
Created orthogonal box = (0.0000000 0.0000000 0.0000000) to (200.00000 50.000000 50.000000)
  4 by 2 by 2 MPI processor grid
Lattice spacing in x,y,z = 1.0000000 1.0000000 1.0000000
Created 7500 atoms
  create_atoms CPU = 0.001 seconds
dynamic group fext_group defined
0 atoms in group fluid
7500 atoms in group solid_fixed
0 atoms in group solid_moving
7500 atoms in group solid
Changing box ...
  orthogonal box = (0.0000000 0.0000000 0.0000000) to (205.00000 50.000000 50.000000)
Displacing atoms ...
Setting atom values ...
  7500 settings made for rho
Setting atom values ...
  7500 settings made for phase
Setting atom values ...
  7500 settings made for phase
Setting atom values ...
  0 settings made for phase
Setting atom values ...
  7500 settings made for temp
Reading data file ...
  1 reading atoms ...
Neighbor list info ...
  update every 1 steps, delay 10 steps, check yes
  max neighbors/atom: 5000, page size: 100000
  master list distance cutoff = 3.6
  ghost atom cutoff = 3.6
  binsize = 1.8, bins = 114 28 28
  7 neighbor lists, perpetual/occasional/extra = 7 0 0
  (1) pair rheo, perpetual, half/full from (2)
      attributes: half, newton on
      pair build: halffull/newton
      stencil: none
      bin: none
  (2) compute rheo/kernel, perpetual
      attributes: full, newton on
      pair build: full/bin/atomonly
      stencil: full/bin/3d
      bin: standard
  (3) compute rheo/grad, perpetual, copy from (1)
      attributes: half, newton on
      pair build: copy
      stencil: none
      bin: none
  (4) compute rheo/solids, perpetual, copy from (1)
      attributes: half, newton on
      pair build: copy
      stencil: none
      bin: none
  (5) compute rheo/vshift, perpetual, copy from (1)
      attributes: half, newton on
      pair build: copy
      stencil: none
      bin: none
  (6) fix rheo/surface, perpetual, copy from (1)
      attributes: half, newton on
      pair build: copy
      stencil: none
      bin: none
  (7) fix , perpetual, copy from (1)
      attributes: half, newton on
      pair build: copy
      stencil: none
      bin: none
Setting up Verlet run ...
  Unit style    : lj
  Current step  : 0
  Time step     : 0.1
Per MPI rank memory allocation (min/avg/max) = 10.73 | 11.13 | 12.35 Mbytes
Step Time KinEng Press 
       0            0            0            0 
     500           50      0.04925 6.4065041e-08 
    1000          100      0.04925 6.4065041e-08 
    1500          150      0.04925 6.4065041e-08 
    2000          200      0.04925 6.4065041e-08 
    2500          250      0.04925 6.4065041e-08 
    3000          300      0.04925 6.4065041e-08 
    3500          350      0.04925 6.4065041e-08 
    4000          400      0.04925 6.4065041e-08 
slurmstepd: error: *** JOB 1843788 ON solo169 CANCELLED AT 2023-03-31T09:20:29 ***
