LAMMPS (29 Oct 2020)
  using 1 OpenMP thread(s) per MPI task
Created orthogonal box = (0.0000000 0.0000000 0.0000000) to (200.00000 100.00000 100.00000)
  4 by 2 by 2 MPI processor grid
Lattice spacing in x,y,z = 1.0000000 1.0000000 1.0000000
Created 60000 atoms
  create_atoms CPU = 0.006 seconds
dynamic group fext_group defined
0 atoms in group fluid
60000 atoms in group solid_fixed
0 atoms in group solid_moving
60000 atoms in group solid
Changing box ...
  orthogonal box = (0.0000000 0.0000000 0.0000000) to (205.00000 100.00000 100.00000)
Displacing atoms ...
Setting atom values ...
  60000 settings made for rho
Setting atom values ...
  60000 settings made for phase
Setting atom values ...
  60000 settings made for phase
Setting atom values ...
  0 settings made for phase
Setting atom values ...
  60000 settings made for temp
Reading data file ...
  1 reading atoms ...
Neighbor list info ...
  update every 1 steps, delay 10 steps, check yes
  max neighbors/atom: 5000, page size: 100000
  master list distance cutoff = 3.6
  ghost atom cutoff = 3.6
  binsize = 1.8, bins = 114 56 56
  8 neighbor lists, perpetual/occasional/extra = 8 0 0
  (1) pair rheo, perpetual, half/full from (3)
      attributes: half, newton on
      pair build: halffull/newton
      stencil: none
      bin: none
  (2) pair rheo/react, perpetual
      attributes: half, newton on, history
      pair build: half/bin/atomonly/newton
      stencil: half/bin/3d/newton
      bin: standard
  (3) compute rheo/kernel, perpetual
      attributes: full, newton on
      pair build: full/bin/atomonly
      stencil: full/bin/3d
      bin: standard
  (4) compute rheo/grad, perpetual, copy from (1)
      attributes: half, newton on
      pair build: copy
      stencil: none
      bin: none
  (5) compute rheo/solids, perpetual, copy from (1)
      attributes: half, newton on
      pair build: copy
      stencil: none
      bin: none
  (6) compute rheo/vshift, perpetual, copy from (1)
      attributes: half, newton on
      pair build: copy
      stencil: none
      bin: none
  (7) fix rheo/surface, perpetual, copy from (1)
      attributes: half, newton on
      pair build: copy
      stencil: none
      bin: none
  (8) fix , perpetual, copy from (1)
      attributes: half, newton on
      pair build: copy
      stencil: none
      bin: none
Setting up Verlet run ...
  Unit style    : lj
  Current step  : 0
  Time step     : 0.1
Per MPI rank memory allocation (min/avg/max) = 17.81 | 33.78 | 81.69 Mbytes
Step Time KinEng Press 
       0            0            0            0 
     500           50      0.04925 1.601626e-08 
    1000          100      0.04925 1.601626e-08 
    1500          150      0.04925 1.601626e-08 
    2000          200      0.04925 1.601626e-08 
    2500          250      0.04925 1.601626e-08 
    3000          300      0.04925 1.601626e-08 
    3500          350      0.04925 1.601626e-08 
    4000          400      0.04925 1.601626e-08 
    4500          450      0.04925 1.601626e-08 
    5000          500      0.04925 1.601626e-08 
    5500          550       0.0985 3.203252e-08 
    6000          600       0.0985 3.203252e-08 
    6500          650  0.098490179 3.2678396e-08 
    7000          700  0.098490179 3.2678424e-08 
    7500          750  0.098462966 3.3469516e-08 
    8000          800  0.098463001 3.3469369e-08 
    8500          850  0.098417354 3.4722297e-08 
    9000          900   0.09841775 3.4723903e-08 
    9500          950  0.098350123 3.6347097e-08 
   10000         1000  0.098351624 3.6335441e-08 
   10500         1050   0.14750822 5.4324771e-08 
   11000         1100   0.14751137 5.4269819e-08 
   11500         1150    0.1473909 5.6615347e-08 
   12000         1200   0.14740009 5.6501782e-08 
   12500         1250   0.14724824 5.9221615e-08 
   13000         1300   0.14726787 5.9043239e-08 
   13500         1350   0.14708144 6.215266e-08 
   14000         1400   0.14711397 6.1899512e-08 
   14500         1450   0.14689083 6.5416542e-08 
   15000         1500   0.14693856 6.5065846e-08 
   15500         1550   0.19592683 8.5035973e-08 
   16000         1600   0.19599261 8.4556679e-08 
   16500         1650   0.19568907 8.8977348e-08 
   17000         1700   0.19577706 8.8336129e-08 
   17500         1750    0.1954259 9.325662e-08 
   18000         1800    0.1955422 9.2424501e-08 
   18500         1850   0.19513754 9.7864255e-08 
   19000         1900   0.19528818 9.6827942e-08 
   19500         1950   0.19482327 1.0278851e-07 
   20000         2000   0.19501428 1.0155332e-07 
   20500         2050   0.24373572 1.2404606e-07 
   21000         2100   0.24397044 1.2262588e-07 
   21500         2150   0.24337629 1.2958936e-07 
   22000         2200   0.24365622 1.2801391e-07 
   22500         2250   0.24299399 1.3542555e-07 
   23000         2300   0.24332005 1.3374054e-07 
   23500         2350   0.24259003 1.4155799e-07 
   24000         2400   0.24296184 1.3980522e-07 
   24500         2450   0.24216385 1.479658e-07 
   25000         2500    0.2425804 1.4620967e-07 
   25500         2550    0.2909678 1.706921e-07 
   26000         2600   0.29142727 1.6896566e-07 
   26500         2650   0.29050347 1.7768015e-07 
   27000         2700    0.2910028 1.7603414e-07 
   27500         2750   0.29001907 1.849196e-07 
   28000         2800   0.29055489 1.8343923e-07 
   28500         2850   0.28951389 1.9244845e-07 
   29000         2900   0.29008478 1.9117482e-07 
   29500         2950   0.28898814 2.0022121e-07 
   30000         3000   0.28959066 1.9924414e-07 
   30500         3050   0.33769223 2.2433516e-07 
   31000         3100   0.33832607 2.2365593e-07 
   31500         3150   0.33713005 2.3270542e-07 
   32000         3200   0.33779144 2.3236845e-07 
   32500         3250   0.33655076 2.4127929e-07 
   33000         3300     0.337233 2.4140951e-07 
   33500         3350    0.3359504 2.5014127e-07 
   34000         3400   0.33665291 2.5077641e-07 
   34500         3450   0.33533174    2.592e-07 
   35000         3500    0.3360484 2.604688e-07 
   35500         3550   0.38394115 2.8462544e-07 
   36000         3600   0.38467462 2.8650251e-07 
   36500         3650   0.38328625 2.9429774e-07 
   37000         3700    0.3840324 2.9682661e-07 
   37500         3750   0.38261768 3.0411292e-07 
   38000         3800   0.38336597 3.0746856e-07 
   38500         3850   0.38192624 3.1422053e-07 
   39000         3900   0.38267774 3.1844215e-07 
   39500         3950   0.38121799 3.2449076e-07 
   40000         4000    0.3819654 3.2975015e-07 
   40500         4050   0.42973471 3.5117578e-07 
   41000         4100   0.43048447 3.5738607e-07 
   41500         4150   0.42898665 3.6216541e-07 
   42000         4200   0.42973718 3.6931201e-07 
   42500         4250   0.42822635 3.7327564e-07 
   43000         4300   0.42896562 3.815367e-07 
   43500         4350   0.42743885 3.846667e-07 
   44000         4400   0.42816863 3.9413769e-07 
   44500         4450   0.42663661 3.9619823e-07 
   45000         4500   0.42734826 4.0705758e-07 
   45500         4550   0.47505572 4.2421361e-07 
   46000         4600   0.47576025 4.3633706e-07 
   46500         4650   0.47421183 4.3650473e-07 
   47000         4700    0.4749068 4.4991277e-07 
   47500         4750   0.47335913 4.4887323e-07 
   48000         4800   0.47402946 4.6379346e-07 
   48500         4850   0.47247859 4.6155404e-07 
   49000         4900   0.47312854 4.7804345e-07 
   49500         4950   0.47158185 4.7438616e-07 
   50000         5000   0.47220374 4.9261509e-07 
   50500         5050   0.51990358 5.0368954e-07 
   51000         5100   0.52051006 5.2357234e-07 
   51500         5150   0.51896244 5.1733368e-07 
   52000         5200    0.5195549 5.3881353e-07 
   52500         5250   0.51801576 5.3104614e-07 
   53000         5300   0.51857872 5.5432154e-07 
   53500         5350   0.51703842 5.4507672e-07 
   54000         5400   0.51757838 5.7019927e-07 
   54500         5450   0.51604426 5.5927891e-07 
   55000         5500   0.51655555 5.8634996e-07 
   55500         5550   0.56426495 5.8996929e-07 
   56000         5600   0.56476274 6.1891436e-07 
   56500         5650   0.56322385 6.0503578e-07 
   57000         5700   0.56371378 6.357243e-07 
   57500         5750   0.56217779 6.2024069e-07 
   58000         5800   0.56264873 6.5270273e-07 
   58500         5850   0.56110005 6.3573898e-07 
   59000         5900    0.5615578 6.7003572e-07 
   59500         5950   0.56000242 6.5148728e-07 
   60000         6000   0.56044785 6.8758748e-07 
   60500         6050   0.60811793 6.8370793e-07 
   61000         6100    0.6085671 7.2158175e-07 
   61500         6150   0.60697181 7.0035779e-07 
   62000         6200   0.60743219 7.3976971e-07 
   62500         6250   0.60582444 7.1719814e-07 
   63000         6300    0.6062866 7.5801866e-07 
   63500         6350   0.60464251 7.3435479e-07 
   64000         6400   0.60511475 7.7659736e-07 
   64500         6450   0.60343908 7.5182766e-07 
   65000         6500   0.60392507 7.953217e-07 
   65500         6550   0.65144653 7.8579088e-07 
   66000         6600   0.65196176 8.3046531e-07 
   66500         6650   0.65019073 8.0426804e-07 
   67000         6700   0.65074648 8.4981672e-07 
   67500         6750   0.64893792 8.2303279e-07 
   68000         6800   0.64952696 8.6909555e-07 
   68500         6850   0.64764943 8.4209911e-07 
   69000         6900   0.64827742 8.8866391e-07 
   69500         6950   0.64633796 8.615913e-07 
   70000         7000   0.64701153 9.0833397e-07 
   70500         7050   0.69423824 8.9752189e-07 
   71000         7100   0.69496846 9.4447138e-07 
   71500         7150   0.69287506 9.1799356e-07 
   72000         7200   0.69367242 9.6483042e-07 
   72500         7250   0.69151855 9.3882431e-07 
   73000         7300   0.69237507 9.850808e-07 
   73500         7350   0.69013004 9.5987288e-07 
   74000         7400   0.69104447 1.0056339e-06 
   74500         7450   0.68871948 9.8137444e-07 
   75000         7500   0.68969518 1.0262707e-06 
   75500         7550   0.73651961 1.0192115e-06 
   76000         7600   0.73756221 1.0634748e-06 
   76500         7650   0.73505906 1.0415991e-06 
   77000         7700    0.7361769 1.0849857e-06 
   77500         7750   0.73361125 1.0643302e-06 
   78000         7800   0.73479187 1.1063645e-06 
   78500         7850   0.73213611 1.0871653e-06 
   79000         7900   0.73337014 1.1280796e-06 
   79500         7950   0.73063854 1.1104348e-06 
   80000         8000   0.73192644 1.1499112e-06 
   80500         8050   0.77835358 1.1499229e-06 
   81000         8100   0.77969515 1.1884048e-06 
   81500         8150   0.77680736 1.1739281e-06 
   82000         8200   0.77821047 1.2113046e-06 
   82500         8250   0.77527858 1.1982966e-06 
   83000         8300    0.7767293 1.2340527e-06 
   83500         8350   0.77372791 1.2226336e-06 
   84000         8400    0.7752099 1.2571574e-06 
   84500         8450   0.77215375 1.2473888e-06 
   85000         8500   0.77366612 1.2803966e-06 
   85500         8550    0.8197925 1.2882566e-06 
   86000         8600   0.82133214 1.3203741e-06 
   86500         8650    0.8181675 1.3136474e-06 
   87000         8700   0.81974534 1.3448199e-06 
   87500         8750   0.81656289 1.3394517e-06 
   88000         8800   0.81816641 1.3690906e-06 
   88500         8850   0.81494148 1.3650984e-06 
   89000         8900   0.81654926 1.3937062e-06 
   89500         8950   0.81329446 1.3911672e-06 
   90000         9000   0.81490637 1.4184491e-06 
   90500         9050   0.86085918 1.4332659e-06 
   91000         9100   0.86247117 1.4599631e-06 
   91500         9150   0.85915597 1.4599429e-06 
   92000         9200   0.86078403 1.4859918e-06 
   92500         9250   0.85747518 1.4871051e-06 
   93000         9300   0.85910967 1.5118287e-06 
   93500         9350    0.8557826 1.5139972e-06 
   94000         9400   0.85739888 1.5379625e-06 
   94500         9450   0.85406173 1.5413251e-06 
   95000         9500   0.85566115 1.5642055e-06 
   95500         9550   0.90155053 1.5846259e-06 
   96000         9600   0.90312955 1.6072324e-06 
   96500         9650   0.89976651 1.6125855e-06 
   97000         9700    0.9013469 1.6348079e-06 
   97500         9750   0.89800636 1.6411105e-06 
   98000         9800   0.89958179 1.6621942e-06 
   98500         9850   0.89623903 1.6692668e-06 
   99000         9900   0.89778353 1.6898059e-06 
   99500         9950   0.89444087 1.6978785e-06 
  100000        10000   0.89595732 1.7175129e-06 
  100500        10050   0.94184987 1.7424145e-06 
  101000        10100   0.94333647 1.7619785e-06 
  101500        10150   0.93998089 1.771704e-06 
  102000        10200   0.94146387 1.7910435e-06 
  102500        10250   0.93813675 1.8016322e-06 
  103000        10300   0.93961352 1.8199529e-06 
  103500        10350   0.93628958 1.831109e-06 
  104000        10400   0.93773503 1.8489921e-06 
  104500        10450   0.93440971 1.8610471e-06 
  105000        10500   0.93582735 1.878118e-06 
  105500        10550   0.98173407 1.9068662e-06 
  106000        10600   0.98312431 1.9239659e-06 
  106500        10650   0.97977546 1.9375304e-06 
  107000        10700   0.98116824 1.9544685e-06 
  107500        10750   0.97784253 1.9688966e-06 
  108000        10800   0.97923825 1.9848864e-06 
  108500        10850   0.97591002 1.9997395e-06 
  109000        10900   0.97728655 2.0153212e-06 
  109500        10950   0.97394411 2.0310423e-06 
  110000        11000   0.97530448 2.0458509e-06 
  110500        11050    1.0211797 2.0781665e-06 
  111000        11100     1.022527 2.0930376e-06 
  111500        11150    1.0191276 2.110228e-06 
  112000        11200    1.0204933 2.124957e-06 
  112500        11250    1.0171018 2.1430399e-06 
  113000        11300     1.018489 2.1568907e-06 
  113500        11350    1.0150796 2.1752692e-06 
  114000        11400    1.0164698 2.1887239e-06 
  114500        11450     1.013025 2.2079363e-06 
  115000        11500    1.0144188 2.2206827e-06 
  115500        11550    1.0601696 2.2563489e-06 
  116000        11600    1.0615721 2.2692177e-06 
  116500        11650    1.0580227 2.2897729e-06 
  117000        11700    1.0594646 2.3025818e-06 
  117500        11750    1.0559025 2.3239941e-06 
  118000        11800    1.0573889 2.3360867e-06 
  118500        11850    1.0537894 2.3575888e-06 
  119000        11900    1.0553048 2.3693787e-06 
  119500        11950     1.051647 2.3915633e-06 
  120000        12000    1.0531868 2.4028392e-06 
  120500        12050    1.0987019 2.4412094e-06 
  121000        12100    1.1002721 2.4527765e-06 
  121500        12150    1.0964633 2.4759131e-06 
  122000        12200    1.0980907 2.4876631e-06 
  122500        12250    1.0942514 2.5114596e-06 
  123000        12300    1.0959422 2.5228119e-06 
  123500        12350    1.0920505 2.5463495e-06 
  124000        12400    1.0937901 2.5576521e-06 
  124500        12450    1.0898255 2.5815426e-06 
  125000        12500    1.0916024 2.5927169e-06 
  125500        12550    1.1367968 2.6323238e-06 
  126000        12600    1.1386166 2.6441408e-06 
  126500        12650    1.1344738 2.6681963e-06 
  127000        12700     1.136357 2.6806286e-06 
  127500        12750    1.1321771 2.7049699e-06 
  128000        12800    1.1341308 2.7175017e-06 
  128500        12850    1.1298953 2.7410685e-06 
  129000        12900    1.1319047 2.7539847e-06 
  129500        12950    1.1275959 2.7773948e-06 
  130000        13000     1.129642 2.7907307e-06 
  130500        13050    1.1744923 2.8292388e-06 
  131000        13100    1.1765793 2.8437027e-06 
  131500        13150    1.1720949 2.8661788e-06 
  132000        13200    1.1742362 2.8818397e-06 
  132500        13250    1.1697214 2.9041186e-06 
  133000        13300    1.1719263 2.9204682e-06 
  133500        13350    1.1673664 2.9413853e-06 
  134000        13400      1.16962 2.958627e-06 
  134500        13450    1.1650005 2.978804e-06 
  135000        13500    1.1672772 2.9970732e-06 
  135500        13550    1.2118295 3.0316904e-06 
  136000        13600    1.2141331 3.0515961e-06 
  136500        13650    1.2093651 3.0696571e-06 
  137000        13700    1.2117031 3.0913651e-06 
  137500        13750    1.2069205 3.1087557e-06 
  138000        13800     1.209306 3.1317182e-06 
  138500        13850    1.2044967 3.1472058e-06 
  139000        13900    1.2069162 3.1715301e-06 
  139500        13950    1.2020685 3.1857332e-06 
  140000        14000    1.2044918 3.2116244e-06 
  140500        14050    1.2488336 3.2397073e-06 
  141000        14100    1.2512651 3.2676455e-06 
  141500        14150    1.2463057 3.2787231e-06 
  142000        14200     1.248749 3.3089685e-06 
  142500        14250     1.243792 3.3190251e-06 
  143000        14300    1.2462652 3.3509609e-06 
  143500        14350    1.2413003 3.3587177e-06 
  144000        14400    1.2437927 3.3923424e-06 
  144500        14450    1.2388097 3.3984248e-06 
  145000        14500    1.2412888 3.4339909e-06 
  145500        14550    1.2855107 3.4535726e-06 
  146000        14600    1.2879821 3.4914196e-06 
  146500        14650    1.2829188 3.4937012e-06 
  147000        14700    1.2853842 3.5341763e-06 
  147500        14750    1.2803348 3.5352912e-06 
  148000        14800    1.2828174 3.5776981e-06 
  148500        14850    1.2777726 3.5763172e-06 
  149000        14900    1.2802659 3.620539e-06 
  149500        14950    1.2752168 3.6172975e-06 
  150000        15000    1.2776871 3.6636228e-06 
  150500        15050    1.3218509 3.6737325e-06 
  151000        15100    1.3243054 3.7223521e-06 
  151500        15150     1.319192 3.7150667e-06 
  152000        15200     1.321632 3.7664299e-06 
  152500        15250    1.3165349 3.758002e-06 
  153000        15300    1.3189873 3.811363e-06 
  153500        15350     1.313899 3.8004585e-06 
  154000        15400    1.3163607 3.8555588e-06 
  154500        15450    1.3112737 3.8428189e-06 
  155000        15500    1.3137122 3.8999587e-06 
  155500        15550     1.357837 3.9006612e-06 
  156000        15600    1.3602603 3.9598881e-06 
  156500        15650    1.3551077 3.9432932e-06 
  157000        15700     1.357518 4.0051567e-06 
  157500        15750    1.3523747 3.9876809e-06 
  158000        15800    1.3548003 4.0513863e-06 
  158500        15850    1.3496618 4.0316769e-06 
  159000        15900    1.3521037 4.0967948e-06 
  159500        15950    1.3469629 4.0755444e-06 
  160000        16000    1.3493905 4.1423896e-06 
  160500        16050    1.3934524 4.1349175e-06 
  161000        16100    1.3958737 4.2034058e-06 
  161500        16150    1.3906496 4.1789589e-06 
  162000        16200    1.3930678 4.2497205e-06 
  162500        16250    1.3878389 4.2248946e-06 
  163000        16300    1.3902815 4.2971479e-06 
  163500        16350    1.3850463 4.2705294e-06 
  164000        16400    1.3875185 4.3437002e-06 
  164500        16450    1.3822724 4.3159662e-06 
  165000        16500    1.3847449 4.3903676e-06 
  165500        16550    1.4286867 4.3769761e-06 
  166000        16600    1.4311658 4.4523951e-06 
  166500        16650    1.4258085 4.4225185e-06 
  167000        16700    1.4282998 4.4996746e-06 
  167500        16750    1.4229206 4.4700399e-06 
  168000        16800    1.4254475 4.5482022e-06 
  168500        16850    1.4200477 4.5174289e-06 
  169000        16900    1.4226193 4.5957624e-06 
  169500        16950    1.4171978 4.564529e-06 
  170000        17000    1.4197855 4.6434635e-06 
  170500        17050    1.4635373 4.6272489e-06 
  171000        17100     1.466145 4.7064562e-06 
  171500        17150    1.4605852 4.6743464e-06 
  172000        17200    1.4632199 4.7546564e-06 
  172500        17250     1.457623 4.7234895e-06 
  173000        17300    1.4603023 4.8042218e-06 
  173500        17350    1.4546726 4.7726217e-06 
  174000        17400    1.4574079 4.8528599e-06 
  174500        17450    1.4517485 4.8213748e-06 
  175000        17500    1.4545136 4.9015333e-06 
  175500        17550    1.4980169 4.8858049e-06 
  176000        17600    1.5008099 4.9655129e-06 
  176500        17650    1.4949933 4.9344597e-06 
  177000        17700    1.4978233 5.0146367e-06 
  177500        17750    1.4919615 4.9851649e-06 
  178000        17800    1.4948386 5.0652952e-06 
  178500        17850    1.4889374 5.0360029e-06 
  179000        17900    1.4918755 5.1150067e-06 
  179500        17950    1.4859427 5.0863889e-06 
  180000        18000    1.4889175 5.1647053e-06 
  180500        18050    1.5321451 5.1524647e-06 
  181000        18100    1.5351478 5.2297148e-06 
  181500        18150    1.5290552 5.2026222e-06 
  182000        18200    1.5320959 5.2798488e-06 
  182500        18250    1.5259596 5.2548015e-06 
  183000        18300     1.529042 5.3316444e-06 
  183500        18350    1.5228678 5.307265e-06 
  184000        18400    1.5260075 5.3825335e-06 
  184500        18450    1.5198072 5.3591875e-06 
  185000        18500    1.5229822 5.4333716e-06 
  185500        18550    1.5659496 5.4267365e-06 
  186000        18600    1.5691445 5.4995369e-06 
  186500        18650    1.5627972 5.4782878e-06 
  187000        18700    1.5660247 5.5507415e-06 
  187500        18750    1.5596421 5.5318307e-06 
  188000        18800    1.5628995 5.6037744e-06 
  188500        18850    1.5564859 5.5858055e-06 
  189000        18900    1.5597912 5.6559422e-06 
  189500        18950    1.5533625 5.6391278e-06 
  190000        19000    1.5566966 5.7079961e-06 
  190500        19050     1.599447 5.7081133e-06 
  191000        19100    1.6027893  5.77541e-06 
  191500        19150    1.5962348 5.760965e-06 
  192000        19200    1.5996004 5.8278172e-06 
  192500        19250    1.5930238 5.8157449e-06 
  193000        19300    1.5964051 5.8821267e-06 
  193500        19350    1.5898061 5.8711524e-06 
  194000        19400    1.5932233 5.9356618e-06 
  194500        19450    1.5866209 5.9258032e-06 
  195000        19500    1.5900592 5.9890187e-06 
  195500        19550    1.6326494 5.9960662e-06 
  196000        19600    1.6360841 6.0577549e-06 
  196500        19650    1.6293782 6.0501401e-06 
  197000        19700    1.6328267 6.1114153e-06 
  197500        19750    1.6261108 6.1060929e-06 
  198000        19800    1.6294884 6.169588e-06 
  198500        19850    1.6151659 6.3423246e-06 
  199000        19900    1.5307277 8.3406853e-06 
  199500        19950     1.228355 1.558825e-05 
  200000        20000   0.83962507 2.6734275e-05 
  200500        20050   0.50419782 3.8427345e-05 
  201000        20100   0.25614344 4.9065951e-05 
  201500        20150   0.16442556 5.6880002e-05 
  202000        20200   0.18450797 6.3608435e-05 
  202500        20250   0.19616269 6.9689907e-05 
  203000        20300   0.27233229 7.6968962e-05 
  203500        20350   0.27178369 8.3486551e-05 
  204000        20400   0.27470549 9.0632575e-05 
  204500        20450   0.18381092 9.6465846e-05 
  205000        20500   0.15569369 0.00010271171 
  205500        20550   0.14563315 0.00010679319 
  206000        20600   0.16095605 0.00011144849 
  206500        20650   0.13090195 0.00011415143 
  207000        20700   0.15701426 0.0001176895 
  207500        20750   0.12849214 0.00011910473 
  208000        20800    0.1406079 0.00012245763 
  208500        20850   0.10398534 0.00012326166 
  209000        20900   0.11431121 0.00012593962 
  209500        20950  0.088208884 0.00012588561 
  210000        21000  0.099183182 0.00012684517 
  210500        21050   0.13493249 0.00012525187 
  211000        21100   0.14155559 0.00012459053 
  211500        21150   0.13947295 0.00012187021 
  212000        21200   0.14424769 0.00012045033 
  212500        21250   0.14447309 0.00011723805 
  213000        21300   0.14485116 0.00011454008 
  213500        21350   0.13425038 0.00010970041 
  214000        21400   0.12509838 0.00010891672 
  214500        21450   0.11628999  0.000108815 
  215000        21500   0.10780143 0.00010637208 
  215500        21550   0.13509144 0.00010501529 
  216000        21600   0.14542608 0.00010669208 
  216500        21650    0.1323054 0.00010537452 
  217000        21700   0.14151674 0.00010420586 
  217500        21750   0.12404756 0.00010190073 
  218000        21800   0.13455296 0.0001003943 
  218500        21850   0.12084225 0.00010060357 
  219000        21900      0.12353 9.8649465e-05 
  219500        21950   0.10893407 0.00010076682 
  220000        22000   0.11572897 9.8119834e-05 
  220500        22050   0.15027044 9.9553293e-05 
  221000        22100   0.15690211 9.718653e-05 
  221500        22150   0.14451223 9.6908301e-05 
  222000        22200   0.15291555 9.6026238e-05 
  222500        22250   0.13933214 9.1151136e-05 
  223000        22300   0.13997206 9.2519408e-05 
  223500        22350   0.12895459 8.9320761e-05 
  224000        22400   0.13078019 9.0863636e-05 
  224500        22450   0.11933062 8.7802758e-05 
  225000        22500   0.11854116 8.9011575e-05 
  225500        22550   0.17025954 8.7535008e-05 
  226000        22600   0.16111008 8.7658029e-05 
  226500        22650   0.15000953 8.6101713e-05 
  227000        22700   0.14897383 8.6277572e-05 
  227500        22750   0.12880938 8.4486391e-05 
  228000        22800   0.14024459 8.4275877e-05 
  228500        22850   0.11883012 8.4551264e-05 
  229000        22900   0.13169966 8.3735991e-05 
  229500        22950   0.11133167 8.2192562e-05 
  230000        23000   0.13916871 8.4428189e-05 
  230500        23050   0.15347685 8.2832255e-05 
  231000        23100   0.16814823 8.1538559e-05 
  231500        23150   0.15040321 7.8650308e-05 
  232000        23200   0.16440352 7.9851464e-05 
  232500        23250   0.15272321 7.6647535e-05 
  233000        23300   0.16572857 7.7314694e-05 
  233500        23350   0.17069078 7.8515694e-05 
  234000        23400   0.15540803 7.7092809e-05 
  234500        23450    0.1307867 7.6625539e-05 
  235000        23500   0.14718695 7.4141306e-05 
  235500        23550   0.17782771 7.220218e-05 
  236000        23600    0.1951185 7.3238506e-05 
  236500        23650   0.16138788 7.3599551e-05 
  237000        23700   0.18805676 7.2089857e-05 
  237500        23750    0.1573661 7.358863e-05 
  238000        23800    0.1797238 7.5239575e-05 
  238500        23850   0.15439059 7.3585968e-05 
  239000        23900   0.18501812 7.4905188e-05 
  239500        23950   0.14266153 7.796415e-05 
  240000        24000   0.20684503 7.8161564e-05 
  240500        24050   0.18419824 7.5239446e-05 
  241000        24100   0.21434876 7.4209546e-05 
  241500        24150    0.1774082 7.463596e-05 
  242000        24200   0.20987263 7.3142864e-05 
  242500        24250   0.18043023 7.2916123e-05 
  243000        24300   0.21247979 7.0311863e-05 
  243500        24350   0.17506571 7.1879195e-05 
  244000        24400   0.21016453 7.2520912e-05 
  244500        24450   0.15888978 7.1580526e-05 
  245000        24500   0.19801708 7.6293422e-05 
  245500        24550   0.20023728 7.1647364e-05 
  246000        24600   0.23175489 7.0750135e-05 
  246500        24650   0.19410037 7.2550327e-05 
  247000        24700    0.2269731 7.1030305e-05 
  247500        24750   0.19269167 7.2239729e-05 
  248000        24800   0.23303993 7.5207615e-05 
  248500        24850    0.2042585 7.3056732e-05 
  249000        24900   0.23012597 7.4511672e-05 
  249500        24950   0.20582124 7.6178034e-05 
  250000        25000   0.23589197 7.5496898e-05 
  250500        25050   0.28075759 7.6991805e-05 
  251000        25100   0.29176379 7.5828838e-05 
  251500        25150      0.26617 7.6826773e-05 
  252000        25200   0.30294557 7.6556122e-05 
  252500        25250   0.28197648 7.4203622e-05 
  253000        25300   0.31311576 7.3519727e-05 
  253500        25350   0.29023646 7.3407334e-05 
  254000        25400   0.32438399 7.3564194e-05 
  254500        25450   0.30553762 7.2613427e-05 
  255000        25500   0.34837857 7.1395828e-05 
  255500        25550   0.37368628 7.3762228e-05 
  256000        25600    0.4170397 7.2562545e-05 
  256500        25650   0.39193414 7.1618442e-05 
  257000        25700   0.43804356 7.1946775e-05 
  257500        25750   0.42141208 7.0228713e-05 
  258000        25800   0.45687675 7.0332776e-05 
  258500        25850   0.46627063 7.3871473e-05 
  259000        25900   0.48905921 6.7943902e-05 
  259500        25950   0.46837368 6.826535e-05 
  260000        26000   0.50319323 6.7937871e-05 
  260500        26050   0.53472685 6.9205394e-05 
  261000        26100    0.5758994 6.6806408e-05 
  261500        26150   0.55934417 6.6030439e-05 
  262000        26200   0.59339167 7.2467901e-05 
  262500        26250   0.58971707 6.9810015e-05 
  263000        26300   0.59955364 7.0328077e-05 
  263500        26350     0.560951 7.0515999e-05 
  264000        26400   0.60905804 6.9227667e-05 
  264500        26450   0.57117824 7.0484354e-05 
  265000        26500   0.60688799 7.3088377e-05 
  265500        26550   0.61864089 7.1779678e-05 
  266000        26600   0.67529724 7.1997835e-05 
  266500        26650   0.61146029 7.5445958e-05 
  267000        26700   0.62222349 7.2971388e-05 
  267500        26750   0.58440285 7.8870472e-05 
  268000        26800   0.60012637 7.5513089e-05 
  268500        26850   0.55398047 7.0659244e-05 
  269000        26900   0.56273433 6.6669877e-05 
  269500        26950   0.55113996 6.7331224e-05 
  270000        27000    0.5561489 7.1052854e-05 
  270500        27050   0.54817866 6.9384655e-05 
  271000        27100   0.55054636 7.0773217e-05 
  271500        27150   0.51300606 7.0764013e-05 
  272000        27200   0.53134554 7.1107235e-05 
  272500        27250   0.49477195 6.9340289e-05 
ERROR on proc 2: Non-numeric atom coords - simulation unstable (src/domain.cpp:548)
ERROR on proc 4: Non-numeric atom coords - simulation unstable (src/domain.cpp:548)
ERROR on proc 8: Non-numeric atom coords - simulation unstable (src/domain.cpp:548)
ERROR on proc 0: Non-numeric atom coords - simulation unstable (src/domain.cpp:548)
ERROR on proc 3: Non-numeric atom coords - simulation unstable (src/domain.cpp:548)
ERROR on proc 11: Non-numeric atom coords - simulation unstable (src/domain.cpp:548)
ERROR on proc 1: Non-numeric atom coords - simulation unstable (src/domain.cpp:548)
ERROR on proc 5: Non-numeric atom coords - simulation unstable (src/domain.cpp:548)
ERROR on proc 9: Non-numeric atom coords - simulation unstable (src/domain.cpp:548)
--------------------------------------------------------------------------
MPI_ABORT was invoked on rank 1 in communicator MPI_COMM_WORLD
with errorcode 1.

NOTE: invoking MPI_ABORT causes Open MPI to kill all MPI processes.
You may or may not see output from other processes, depending on
exactly when Open MPI kills them.
--------------------------------------------------------------------------
------------------------------------------------------------
A process or daemon was unable to complete a TCP connection
to another process:
  Local host:    solo175
  Remote host:   solo176
This is usually caused by a firewall on the remote host. Please
check that any firewall (e.g., iptables) has been disabled and
try again.
------------------------------------------------------------
------------------------------------------------------------
A process or daemon was unable to complete a TCP connection
to another process:
  Local host:    solo175
  Remote host:   solo206
This is usually caused by a firewall on the remote host. Please
check that any firewall (e.g., iptables) has been disabled and
try again.
------------------------------------------------------------
------------------------------------------------------------
A process or daemon was unable to complete a TCP connection
to another process:
  Local host:    solo175
  Remote host:   solo207
This is usually caused by a firewall on the remote host. Please
check that any firewall (e.g., iptables) has been disabled and
try again.
------------------------------------------------------------
------------------------------------------------------------
A process or daemon was unable to complete a TCP connection
to another process:
  Local host:    solo175
  Remote host:   solo265
This is usually caused by a firewall on the remote host. Please
check that any firewall (e.g., iptables) has been disabled and
try again.
------------------------------------------------------------
------------------------------------------------------------
A process or daemon was unable to complete a TCP connection
to another process:
  Local host:    solo175
  Remote host:   solo266
This is usually caused by a firewall on the remote host. Please
check that any firewall (e.g., iptables) has been disabled and
try again.
------------------------------------------------------------
------------------------------------------------------------
A process or daemon was unable to complete a TCP connection
to another process:
  Local host:    solo175
  Remote host:   solo295
This is usually caused by a firewall on the remote host. Please
check that any firewall (e.g., iptables) has been disabled and
try again.
------------------------------------------------------------
------------------------------------------------------------
A process or daemon was unable to complete a TCP connection
to another process:
  Local host:    solo175
  Remote host:   solo296
This is usually caused by a firewall on the remote host. Please
check that any firewall (e.g., iptables) has been disabled and
try again.
------------------------------------------------------------
[solo175:79948] 8 more processes have sent help message help-mpi-api.txt / mpi-abort
[solo175:79948] Set MCA parameter "orte_base_help_aggregate" to 0 to see all help / error messages
