LAMMPS (29 Oct 2020)
  using 1 OpenMP thread(s) per MPI task
Created orthogonal box = (0.0000000 0.0000000 0.0000000) to (200.00000 100.00000 100.00000)
  4 by 2 by 2 MPI processor grid
Lattice spacing in x,y,z = 1.0000000 1.0000000 1.0000000
Created 60000 atoms
  create_atoms CPU = 0.006 seconds
dynamic group fext_group defined
0 atoms in group fluid
60000 atoms in group solid_fixed
0 atoms in group solid_moving
60000 atoms in group solid
Changing box ...
  orthogonal box = (0.0000000 0.0000000 0.0000000) to (205.00000 100.00000 100.00000)
Displacing atoms ...
ERROR: Illegal pair_style command (src/pair_rheo.cpp:467)
Last command: pair_style         rheo ${h3} artificial/visc ${zeta} rho/damp ${Dr} rheo/react #thermal/expand
--------------------------------------------------------------------------
Primary job  terminated normally, but 1 process returned
a non-zero exit code. Per user-direction, the job has been aborted.
--------------------------------------------------------------------------
------------------------------------------------------------
A process or daemon was unable to complete a TCP connection
to another process:
  Local host:    solo175
  Remote host:   solo176
This is usually caused by a firewall on the remote host. Please
check that any firewall (e.g., iptables) has been disabled and
try again.
------------------------------------------------------------
------------------------------------------------------------
A process or daemon was unable to complete a TCP connection
to another process:
  Local host:    solo175
  Remote host:   solo206
This is usually caused by a firewall on the remote host. Please
check that any firewall (e.g., iptables) has been disabled and
try again.
------------------------------------------------------------
------------------------------------------------------------
A process or daemon was unable to complete a TCP connection
to another process:
  Local host:    solo175
  Remote host:   solo207
This is usually caused by a firewall on the remote host. Please
check that any firewall (e.g., iptables) has been disabled and
try again.
------------------------------------------------------------
------------------------------------------------------------
A process or daemon was unable to complete a TCP connection
to another process:
  Local host:    solo175
  Remote host:   solo265
This is usually caused by a firewall on the remote host. Please
check that any firewall (e.g., iptables) has been disabled and
try again.
------------------------------------------------------------
------------------------------------------------------------
A process or daemon was unable to complete a TCP connection
to another process:
  Local host:    solo175
  Remote host:   solo266
This is usually caused by a firewall on the remote host. Please
check that any firewall (e.g., iptables) has been disabled and
try again.
------------------------------------------------------------
------------------------------------------------------------
A process or daemon was unable to complete a TCP connection
to another process:
  Local host:    solo175
  Remote host:   solo295
This is usually caused by a firewall on the remote host. Please
check that any firewall (e.g., iptables) has been disabled and
try again.
------------------------------------------------------------
------------------------------------------------------------
A process or daemon was unable to complete a TCP connection
to another process:
  Local host:    solo175
  Remote host:   solo296
This is usually caused by a firewall on the remote host. Please
check that any firewall (e.g., iptables) has been disabled and
try again.
------------------------------------------------------------
--------------------------------------------------------------------------
mpirun detected that one or more processes exited with non-zero status, thus causing
the job to be terminated. The first process to do so was:

  Process name: [[20819,1],12]
  Exit code:    1
--------------------------------------------------------------------------
